% Model:              accelerometer_3D.mph
% Version:            COMSOL 6.0.0.318
% Date:               Jan 10 2025, 13:00
% Table:              Table 9 - displacement vs alpha
% alpha                  x displacement vs alpha (nm)y displacement vs alpha (nm)
0                        3.242995940342932E-5     1.2203919738927787E-7
0.15707963267948966      3.204729377562743E-5     7.292862195717521E-6
0.3141592653589793       3.0879664381844225E-5    1.4284886738596373E-5
0.47123889803846897      2.8951657295756903E-5    2.0943601556784307E-5
0.6283185307179586       2.6310746240838404E-5    2.709073515166485E-5
0.7853981633974483       2.3021959311260046E-5    3.2570801257012374E-5
0.9424777960769379       1.9166277249181403E-5    3.724927143820794E-5
1.0995574287564276       1.4838639839230697E-5    4.1010905766302716E-5
1.2566370614359172       1.0145607819479972E-5    4.376320840039519E-5
1.413716694115407        5.2027392493199054E-6    4.543809103924094E-5
1.5707963267948966       1.3174405029634278E-7    4.599416143167606E-5
